TITLE     = "Translation of CGNS file exomars3D_wall.cgns"
VARIABLES = "CoordinateX"
"CoordinateY"
"CoordinateZ"
ZONE T="project3"
 STRANDID=1, SOLUTIONTIME=3
 Nodes=10491, Elements=20978, ZONETYPE=FETriangle
 DATAPACKING=POINT
 AUXDATA CGNS.CGNSBase_t=""
 AUXDATA CGNS.Zone_t=""
 DT=(DOUBLE DOUBLE DOUBLE )
 0.000000000E+00 0.000000000E+00 0.000000000E+00
 1.871620059E+00 6.096200309E-07 0.000000000E+00
 7.314997492E-04 4.977441579E-02 3.673419846E-40
 5.269250367E-03 9.934838861E-02 3.673419846E-40
 1.330238860E-02 1.484775990E-01 3.673419846E-40
 2.408158220E-02 1.970733255E-01 3.673419846E-40
 3.726603463E-02 2.450848222E-01 3.673419846E-40
 5.229712650E-02 2.925484776E-01 3.673419846E-40
 6.861171126E-02 3.395892382E-01 3.673419846E-40
 8.553428203E-02 3.864147663E-01 3.673419846E-40
 1.027367339E-01 4.331388772E-01 3.673419846E-40
 1.197944432E-01 4.799160063E-01 3.673419846E-40
 1.368569136E-01 5.266914368E-01 3.673419846E-40
 1.539195329E-01 5.734667778E-01 3.673419846E-40
 1.709821075E-01 6.202421188E-01 3.673419846E-40
 1.880446821E-01 6.670175195E-01 3.673419846E-40
 2.051072419E-01 7.137928605E-01 3.673419846E-40
 2.221698016E-01 7.605682611E-01 3.673419846E-40
 2.392324358E-01 8.073436022E-01 3.673419846E-40
 2.562828064E-01 8.541234136E-01 3.673419846E-40
 2.733219564E-01 9.009073377E-01 3.673419846E-40
 2.903615236E-01 9.476910830E-01 3.673419846E-40
 3.074011207E-01 9.944748282E-01 3.673419846E-40
 3.244407177E-01 1.041258574E+00 3.673419846E-40
 3.414803445E-01 1.088042259E+00 3.673419846E-40
 3.585199416E-01 1.134826064E+00 3.673419846E-40
 3.755594790E-01 1.181609750E+00 3.673419846E-40
 3.925985098E-01 1.228393674E+00 3.673419846E-40
 4.096221924E-01 1.275183320E+00 3.673419846E-40
 4.266416132E-01 1.321974397E+00 3.673419846E-40
 4.436598122E-01 1.368765831E+00 3.673419846E-40
 4.606729746E-01 1.415559292E+00 3.673419846E-40
 4.776861072E-01 1.462352633E+00 3.673419846E-40
 4.946987033E-01 1.509146094E+00 3.673419846E-40
 5.117258430E-01 1.555933952E+00 3.673419846E-40
 5.287719369E-01 1.602715850E+00 3.673419846E-40
 5.462896824E-01 1.649313450E+00 3.673419846E-40
 5.782457590E-01 1.686551452E+00 3.673419846E-40
 6.254625916E-01 1.699979424E+00 3.673419846E-40
 6.721867323E-01 1.684677482E+00 3.673419846E-40
 7.073847055E-01 1.649610162E+00 3.673419846E-40
 7.413396835E-01 1.613194227E+00 3.673419846E-40
 7.752965689E-01 1.576780081E+00 3.673419846E-40
 8.092534542E-01 1.540365815E+00 3.673419846E-40
 8.432102799E-01 1.503951550E+00 3.673419846E-40
 8.771671653E-01 1.467537284E+00 3.673419846E-40
 9.111239314E-01 1.431123018E+00 3.673419846E-40
 9.450807571E-01 1.394708753E+00 3.673419846E-40
 9.790375829E-01 1.358294368E+00 3.673419846E-40
 1.012994409E+00 1.321880102E+00 3.673419846E-40
 1.046951294E+00 1.285465837E+00 3.673419846E-40
 1.080908060E+00 1.249051571E+00 3.673419846E-40
 1.114864945E+00 1.212637305E+00 3.673419846E-40
 1.148821831E+00 1.176223040E+00 3.673419846E-40
 1.182778597E+00 1.139808774E+00 3.673419846E-40
 1.216735482E+00 1.103394508E+00 3.673419846E-40
 1.250692368E+00 1.066980243E+00 3.673419846E-40
 1.284649134E+00 1.030565977E+00 3.673419846E-40
 1.318606019E+00 9.941517115E-01 3.673419846E-40
 1.352562904E+00 9.577374458E-01 3.673419846E-40
 1.386519670E+00 9.213231802E-01 3.673419846E-40
 1.420476556E+00 8.849088550E-01 3.673419846E-40
 1.454433322E+00 8.484945297E-01 3.673419846E-40
 1.488390088E+00 8.120801449E-01 3.673419846E-40
 1.522346854E+00 7.756658196E-01 3.673419846E-40
 1.556303620E+00 7.392514944E-01 3.673419846E-40
 1.590260386E+00 7.028371096E-01 3.673419846E-40
 1.624217153E+00 6.664227843E-01 3.673419846E-40
 1.658173919E+00 6.300084591E-01 3.673419846E-40
 1.692130685E+00 5.935941339E-01 3.673419846E-40
 1.726087451E+00 5.571797490E-01 3.673419846E-40
 1.760045409E+00 5.207664371E-01 3.673419846E-40
 1.793956637E+00 4.843101501E-01 3.673419846E-40
 1.820729136E+00 4.438530207E-01 3.673419846E-40
 1.824078679E+00 3.943819106E-01 3.673419846E-40
 1.835684061E+00 3.459634483E-01 3.673419846E-40
 1.845526814E+00 2.971599996E-01 3.673419846E-40
 1.853793859E+00 2.480642498E-01 3.673419846E-40
 1.860361457E+00 1.987142116E-01 3.673419846E-40
 1.865554333E+00 1.491958499E-01 3.673419846E-40
 1.869021177E+00 9.953207523E-02 3.673419846E-40
 1.871113539E+00 4.978580773E-02 3.673419846E-40
 5.997201204E-01 1.695753217E+00 4.834934324E-02
 6.971662641E-01 1.217028260E+00 -1.129722357E+00
 6.970542669E-01 1.118129253E+00 -1.227850080E+00
 7.828541994E-01 -1.173449159E+00 -1.041038632E+00
 6.532176733E-01 1.693614006E+00 4.801264778E-02
 6.945888996E-01 1.662676930E+00 4.605893418E-02
 5.563063622E-01 1.665693641E+00 4.720331728E-02
 5.352015495E-01 1.619792581E+00 4.527846724E-02
 7.278878093E-01 1.626996994E+00 4.501337186E-02
 5.183689594E-01 1.573559523E+00 4.435853660E-02
 7.614718080E-01 1.590980172E+00 4.460324347E-02
 7.951784134E-01 1.554826260E+00 4.437794536E-02
 8.289300203E-01 1.518620372E+00 4.426269233E-02
 8.626959324E-01 1.482397556E+00 4.418082163E-02
 8.964646459E-01 1.446170926E+00 4.409884289E-02
 9.302358031E-01 1.409941435E+00 4.400893301E-02
 9.640150666E-01 1.373702288E+00 4.391759261E-02
 9.978101850E-01 1.337445021E+00 4.383888841E-02
 1.031626701E+00 1.301162839E+00 4.378698394E-02
 1.065465569E+00 1.264854670E+00 4.376809672E-02
 1.099324703E+00 1.228522420E+00 4.377768189E-02
 1.133200884E+00 1.192169905E+00 4.380431399E-02
 1.167091489E+00 1.155800223E+00 4.383579642E-02
 1.200993896E+00 1.119416237E+00 4.386349022E-02
 1.234905362E+00 1.083021045E+00 4.388321564E-02
 1.268822432E+00 1.046617985E+00 4.389326274E-02
 1.302741408E+00 1.010211349E+00 4.389168695E-02
 1.336658359E+00 9.738050103E-01 4.387480393E-02
 1.370570540E+00 9.374020696E-01 4.383827746E-02
 1.404476047E+00 9.010042548E-01 4.378060624E-02
 1.438374400E+00 8.646116853E-01 4.370673001E-02
 1.472265124E+00 8.282238245E-01 4.362850264E-02
 1.506147981E+00 7.918397784E-01 4.356072098E-02
 1.540023208E+00 7.554579973E-01 4.351439700E-02
 1.573891282E+00 7.190768719E-01 4.349184409E-02
 1.607753277E+00 6.826944351E-01 4.348909110E-02
 1.641608953E+00 6.463097930E-01 4.350339621E-02
 1.675453663E+00 6.099260449E-01 4.353982955E-02
 1.709273934E+00 5.735539198E-01 4.361953214E-02
 1.743035436E+00 5.372225046E-01 4.379610345E-02
 1.776624084E+00 5.010511279E-01 4.417473078E-02
 1.809906244E+00 4.654870331E-01 4.511176050E-02
 1.820529342E+00 4.153242111E-01 4.421138018E-02
 5.015134215E-01 1.527247906E+00 4.397098348E-02
 4.846635759E-01 1.480893612E+00 4.385357350E-02
 4.678016901E-01 1.434495926E+00 4.385388643E-02
 4.509211481E-01 1.388043761E+00 4.389507324E-02
 4.340187311E-01 1.341535926E+00 4.395278543E-02
 4.170941710E-01 1.294978023E+00 4.402392358E-02
 4.001552165E-01 1.248377204E+00 4.410525039E-02
 3.831896782E-01 1.201746225E+00 4.418843612E-02
 3.662074804E-01 1.155084968E+00 4.426361248E-02
 3.492166102E-01 1.108397007E+00 4.432337359E-02
 3.322193921E-01 1.061689138E+00 4.436279088E-02
 3.152189553E-01 1.014969707E+00 4.437766224E-02
 2.982184887E-01 9.682472944E-01 4.436329752E-02
 2.812205553E-01 9.215288162E-01 4.431646690E-02
 2.642260194E-01 8.748165965E-01 4.423740879E-02
 2.472339422E-01 8.281102180E-01 4.413438961E-02
 2.302254885E-01 7.814127803E-01 4.402561113E-02
 2.132180929E-01 7.347155809E-01 4.393279180E-02
 1.962147653E-01 6.880176067E-01 4.387309402E-02
 1.792164743E-01 6.413183808E-01 4.385142401E-02
 1.622235030E-01 5.946158767E-01 4.386030510E-02
 1.452355534E-01 5.479055047E-01 4.388703406E-02
 1.282526404E-01 5.011823177E-01 4.392146319E-02
 1.112755984E-01 4.544448256E-01 4.395616800E-02
 9.428532422E-02 4.077150822E-01 4.397927225E-02
 7.719871402E-02 3.609903157E-01 4.401202127E-02
 6.070824713E-02 3.140378892E-01 4.405354708E-02
 4.501977563E-02 2.667758465E-01 4.411624372E-02
 3.110859357E-02 2.189595252E-01 4.418777302E-02
 1.897185855E-02 1.706758440E-01 4.412329569E-02
 9.831219912E-03 1.217475310E-01 4.401731864E-02
 3.533960553E-03 7.204163820E-02 4.395248741E-02
 6.968249800E-04 2.205204032E-02 4.391105101E-02
 1.830106735E+00 3.668038249E-01 4.382864386E-02
 1.840848923E+00 3.184000850E-01 4.367512092E-02
 1.849818110E+00 2.696258426E-01 4.361741245E-02
 1.857182503E+00 2.205922753E-01 4.359902442E-02
 1.862694025E+00 1.713336259E-01 4.360209033E-02
 1.867213130E+00 1.219535917E-01 4.360017926E-02
 1.869660735E+00 7.232396305E-02 4.356687889E-02
 1.871145964E+00 2.251242101E-02 4.345861077E-02
 6.000009179E-01 1.695932627E+00 -4.480797797E-02
 6.502980590E-01 1.694774628E+00 -4.474035278E-02
 5.581915975E-01 1.668153048E+00 -4.436756298E-02
 6.915137768E-01 1.666042447E+00 -4.397603497E-02
 5.364241600E-01 1.623195052E+00 -4.365364462E-02
 5.195516348E-01 1.576831698E+00 -4.343750700E-02
 5.026348829E-01 1.530345321E+00 -4.343447089E-02
 4.857102036E-01 1.483783960E+00 -4.349831492E-02
 4.687715769E-01 1.437174082E+00 -4.354810715E-02
 4.518201947E-01 1.390528679E+00 -4.355207086E-02
 4.348572493E-01 1.343856812E+00 -4.351528734E-02
 4.178824425E-01 1.297165155E+00 -4.346402362E-02
 4.009031653E-01 1.250458002E+00 -4.342767596E-02
 3.839073479E-01 1.203745723E+00 -4.342313856E-02
 3.669032753E-01 1.157027602E+00 -4.344795272E-02
 3.498975337E-01 1.110301137E+00 -4.348661751E-02
 3.328889608E-01 1.063563704E+00 -4.352328926E-02
 3.158768713E-01 1.016813517E+00 -4.354985803E-02
 2.988619506E-01 9.700520635E-01 -4.356512055E-02
 2.818461359E-01 9.232839346E-01 -4.357011244E-02
 2.648316026E-01 8.765150309E-01 -4.356496781E-02
 2.478202581E-01 8.297521472E-01 -4.354353622E-02
 2.307940722E-01 7.830032706E-01 -4.350078851E-02
 2.137691975E-01 7.362581491E-01 -4.344402626E-02
 1.967480034E-01 6.895127892E-01 -4.339173809E-02
 1.797307879E-01 6.427648067E-01 -4.336230084E-02
 1.627184004E-01 5.960120559E-01 -4.337084293E-02
 1.457145065E-01 5.492621064E-01 -4.339187965E-02
 1.287170649E-01 5.025054216E-01 -4.340412840E-02
 1.117267758E-01 4.557395279E-01 -4.341751710E-02
 9.472358227E-02 4.089709520E-01 -4.343073815E-02
 7.761939615E-02 3.622256517E-01 -4.349973425E-02
 6.111596897E-02 3.152996004E-01 -4.347764701E-02
 4.538464174E-02 2.680294514E-01 -4.351179302E-02
 3.140316904E-02 2.201672643E-01 -4.359714314E-02
 1.918313280E-02 1.717577875E-01 -4.361619428E-02
 1.000119001E-02 1.229436696E-01 -4.355572537E-02
 3.620931413E-03 7.331865281E-02 -4.341880977E-02
 7.024802035E-04 2.335486934E-02 -4.335122555E-02
 7.250937819E-01 1.630035877E+00 -4.347151890E-02
 7.588376999E-01 1.593842745E+00 -4.327188805E-02
 7.926379442E-01 1.557585001E+00 -4.318928346E-02
 8.264650106E-01 1.521296263E+00 -4.316947982E-02
 8.603094220E-01 1.484987617E+00 -4.317200184E-02
 8.941659331E-01 1.448665142E+00 -4.317336529E-02
 9.280321002E-01 1.412331820E+00 -4.316147789E-02
 9.619086385E-01 1.375987053E+00 -4.313455895E-02
 9.957974553E-01 1.339628458E+00 -4.310004041E-02
 1.029699802E+00 1.303254247E+00 -4.306929559E-02
 1.063614726E+00 1.266865253E+00 -4.305106029E-02
 1.097539902E+00 1.230463266E+00 -4.304893687E-02
 1.131472707E+00 1.194051385E+00 -4.306251556E-02
 1.165408611E+00 1.157634377E+00 -4.308399931E-02
 1.199344635E+00 1.121215940E+00 -4.309885949E-02
 1.233281612E+00 1.084795237E+00 -4.309690744E-02
 1.267220616E+00 1.048371077E+00 -4.307935759E-02
 1.301160693E+00 1.011944056E+00 -4.305321723E-02
 1.335101128E+00 9.755145907E-01 -4.302483425E-02
 1.369041204E+00 9.390825629E-01 -4.300092906E-02
 1.402981162E+00 9.026472569E-01 -4.299079627E-02
 1.436919332E+00 8.662091494E-01 -4.300460219E-02
 1.470848799E+00 8.297761083E-01 -4.302904382E-02
 1.504768968E+00 7.933494449E-01 -4.303573444E-02
 1.538685679E+00 7.569230199E-01 -4.301723838E-02
 1.572598934E+00 7.204956412E-01 -4.298675433E-02
 1.606506467E+00 6.840677857E-01 -4.295640066E-02
 1.640405416E+00 6.476407647E-01 -4.294272885E-02
 1.674291134E+00 6.112154722E-01 -4.297943041E-02
 1.708152652E+00 5.747963786E-01 -4.313355684E-02
 1.741945267E+00 5.384287834E-01 -4.338557646E-02
 1.775608778E+00 5.021752715E-01 -4.377077892E-02
 1.809027910E+00 4.665279388E-01 -4.447850958E-02
 1.820433378E+00 4.175507426E-01 -4.399246722E-02
 1.829714656E+00 3.684948981E-01 -4.357794300E-02
 1.840528488E+00 3.200155497E-01 -4.344001040E-02
 1.849560261E+00 2.711883485E-01 -4.348097369E-02
 1.856974244E+00 2.221041918E-01 -4.354877025E-02
 1.862549782E+00 1.727370024E-01 -4.358125106E-02
 1.867120028E+00 1.232534721E-01 -4.362943769E-02
 1.869614840E+00 7.354823500E-02 -4.362505674E-02
 1.871118069E+00 2.371289581E-02 -4.364427924E-02
 6.275577545E-01 1.697229862E+00 9.562592208E-02
 6.809995174E-01 1.675016999E+00 9.374959022E-02
 7.140053511E-01 1.639979243E+00 9.110217541E-02
 7.470846772E-01 1.604523778E+00 8.977779001E-02
 7.804729342E-01 1.568700194E+00 8.911000192E-02
 8.139926791E-01 1.532715082E+00 8.877101541E-02
 8.475659490E-01 1.496661782E+00 8.857957274E-02
 8.811579943E-01 1.460583091E+00 8.843037486E-02
 9.147570729E-01 1.424494028E+00 8.827963471E-02
 9.483664036E-01 1.388391614E+00 8.812008798E-02
 9.819961786E-01 1.352263570E+00 8.796576411E-02
 5.723444223E-01 1.679769397E+00 9.470599890E-02
 5.416748524E-01 1.635451198E+00 9.163285047E-02
 5.250276327E-01 1.589934111E+00 8.929277956E-02
 5.083880424E-01 1.544247389E+00 8.817643672E-02
 4.917446673E-01 1.498451114E+00 8.778247982E-02
 4.750864208E-01 1.452554464E+00 8.774657547E-02
 4.583892524E-01 1.406538010E+00 8.783740550E-02
 4.416480958E-01 1.360392570E+00 8.796137571E-02
 4.248611331E-01 1.314129353E+00 8.810246736E-02
 1.015657783E+00 1.316095710E+00 8.784326911E-02
 4.080397785E-01 1.267763734E+00 8.826019615E-02
 1.049357176E+00 1.279879570E+00 8.777504414E-02
 3.911859095E-01 1.221317172E+00 8.842518181E-02
 1.083093166E+00 1.243615389E+00 8.776464313E-02
 3.742946684E-01 1.174802303E+00 8.858066797E-02
 1.116861105E+00 1.207308412E+00 8.779773861E-02
 3.573843539E-01 1.128225923E+00 8.871100098E-02
 1.150655866E+00 1.170965314E+00 8.785195649E-02
 1.184472919E+00 1.134591460E+00 8.790761232E-02
 1.218307257E+00 1.098192573E+00 8.795282245E-02
 1.252153516E+00 1.061774254E+00 8.798228949E-02
 1.286005020E+00 1.025343299E+00 8.799251914E-02
 1.319855094E+00 9.889065027E-01 8.797752857E-02
 1.353697777E+00 9.524703026E-01 8.792871237E-02
 1.387528658E+00 9.160392284E-01 8.783999085E-02
 1.421344042E+00 8.796159625E-01 8.771479130E-02
 1.455140114E+00 8.432015777E-01 8.756932616E-02
 1.488914132E+00 8.067947626E-01 8.742934465E-02
 1.522664905E+00 7.703917623E-01 8.732031286E-02
 1.556392074E+00 7.339885235E-01 8.725481480E-02
 1.590096235E+00 6.975805759E-01 8.722845465E-02
 3.404601216E-01 1.081601620E+00 8.880558610E-02
 3.235281110E-01 1.034945488E+00 8.885621279E-02
 3.065947592E-01 9.882745743E-01 8.885409683E-02
 2.896658480E-01 9.416039586E-01 8.879058808E-02
 2.727451026E-01 8.949423432E-01 8.866240829E-02
 2.558345795E-01 8.482906818E-01 8.847956359E-02
 2.389237136E-01 8.016520739E-01 8.827058971E-02
 2.220127881E-01 7.550179958E-01 8.807539195E-02
 2.051166892E-01 7.083821893E-01 8.793136477E-02
 1.882381290E-01 6.617408395E-01 8.785880357E-02
 1.713798195E-01 6.150902510E-01 8.785195649E-02
 1.545435488E-01 5.684233308E-01 8.788660914E-02
 1.377314627E-01 5.217298269E-01 8.793766797E-02
 1.209489480E-01 4.749981463E-01 8.799678832E-02
 1.042128280E-01 4.282256067E-01 8.805681020E-02
 8.742600679E-02 3.814727366E-01 8.813312650E-02
 7.088812441E-02 3.345828950E-01 8.818866313E-02
 5.505574495E-02 2.874494493E-01 8.829233050E-02
 4.041446373E-02 2.398804724E-01 8.837277442E-02
 2.780002169E-02 1.917587817E-01 8.846209198E-02
 1.623779655E+00 6.611619592E-01 8.723313361E-02
 1.657440186E+00 6.247283816E-01 8.727555722E-02
 1.691062808E+00 5.882848501E-01 8.738271147E-02
 1.724619627E+00 5.518405437E-01 8.762302250E-02
 1.758055925E+00 5.154173374E-01 8.814300597E-02
 1.791258097E+00 4.790359735E-01 8.907085657E-02
 1.820585966E+00 4.367949367E-01 8.911993355E-02
 1.823494315E+00 3.869488537E-01 8.804266155E-02
 1.834747553E+00 3.387126327E-01 8.761820942E-02
 1.717385650E-02 1.429947913E-01 8.835594356E-02
 9.722717106E-03 9.376341850E-02 8.836008608E-02
 5.169971846E-03 4.396398365E-02 8.821401000E-02
 1.844432831E+00 2.902545333E-01 8.739602566E-02
 1.852453709E+00 2.415532917E-01 8.733087778E-02
 1.858904958E+00 1.926058233E-01 8.733499795E-02
 1.863628149E+00 1.434997320E-01 8.733746409E-02
 1.867293000E+00 9.420064837E-02 8.731777221E-02
 1.869091034E+00 4.462254047E-02 8.712176979E-02
 5.758234859E-01 1.682604790E+00 -8.889733255E-02
 6.245033145E-01 1.697634459E+00 -8.938438445E-02
 6.731987000E-01 1.681653380E+00 -8.873026818E-02
 7.085638046E-01 1.646021485E+00 -8.750429004E-02
 5.444924235E-01 1.642818570E+00 -8.781577647E-02
 5.275951028E-01 1.597110748E+00 -8.707258105E-02
 7.421108484E-01 1.610024691E+00 -8.688221127E-02
 5.108223557E-01 1.551017761E+00 -8.691186458E-02
 4.940074682E-01 1.504732370E+00 -8.699125051E-02
 4.771678150E-01 1.458328009E+00 -8.710536361E-02
 4.602985084E-01 1.411841989E+00 -8.715152740E-02
 4.434079230E-01 1.365297079E+00 -8.710821718E-02
 4.264980257E-01 1.318712115E+00 -8.701034635E-02
 4.095786214E-01 1.272097707E+00 -8.691601455E-02
 3.926513791E-01 1.225463629E+00 -8.687280118E-02
 3.757071495E-01 1.178816795E+00 -8.689649403E-02
 3.587610126E-01 1.132152677E+00 -8.696558326E-02
 3.418115079E-01 1.085467219E+00 -8.704321086E-02
 3.248566687E-01 1.038754821E+00 -8.710478991E-02
 3.078970015E-01 9.920161366E-01 -8.714377135E-02
 2.909353673E-01 9.452566504E-01 -8.716135472E-02
 2.739760876E-01 8.984855413E-01 -8.716049045E-02
 2.570240498E-01 8.517124653E-01 -8.714310080E-02
 2.400748134E-01 8.049558997E-01 -8.708670735E-02
 2.231248617E-01 7.582132220E-01 -8.698449284E-02
 2.061895877E-01 7.114763260E-01 -8.686957508E-02
 1.892713457E-01 6.647400856E-01 -8.677739650E-02
 1.723731011E-01 6.179980040E-01 -8.673892170E-02
 1.554987580E-01 5.712383389E-01 -8.680480719E-02
 1.386517286E-01 5.244735479E-01 -8.682408929E-02
 1.218388677E-01 4.776890576E-01 -8.684805036E-02
 1.050745398E-01 4.308766127E-01 -8.688461035E-02
 8.827164024E-02 3.840860724E-01 -8.694204688E-02
 7.168344408E-02 3.372033536E-01 -8.701333404E-02
 5.578989908E-02 2.900603116E-01 -8.710350841E-02
 4.102984443E-02 2.424542904E-01 -8.720061928E-02
 2.829751372E-02 1.943478584E-01 -8.725272864E-02
 7.757159472E-01 1.573950291E+00 -8.659028262E-02
 8.093736768E-01 1.537807107E+00 -8.648148179E-02
 8.430701494E-01 1.501614928E+00 -8.645792305E-02
 8.767936230E-01 1.465389371E+00 -8.645991981E-02
 9.105352759E-01 1.429141879E+00 -8.644982427E-02
 9.442933202E-01 1.392875552E+00 -8.640766144E-02
 9.780719280E-01 1.356585383E+00 -8.633610606E-02
 1.011875272E+00 1.320265532E+00 -8.625663072E-02
 1.045703769E+00 1.283913612E+00 -8.619292825E-02
 1.079554915E+00 1.247531056E+00 -8.615898341E-02
 1.113424540E+00 1.211120963E+00 -8.616023511E-02
 1.147307515E+00 1.174688578E+00 -8.619712293E-02
 1.181193113E+00 1.138246417E+00 -8.624224365E-02
 1.215079188E+00 1.101799607E+00 -8.625521511E-02
 1.248969316E+00 1.065344095E+00 -8.622664213E-02
 1.282860756E+00 1.028881311E+00 -8.617378026E-02
 1.316750407E+00 9.924128056E-01 -8.610990644E-02
 1.350636125E+00 9.559388757E-01 -8.604607731E-02
 1.384517074E+00 9.194579124E-01 -8.599687368E-02
 1.418392777E+00 8.829665184E-01 -8.598579466E-02
 1.452260613E+00 8.464624286E-01 -8.604401350E-02
 1.486101627E+00 8.099719286E-01 -8.608999103E-02
 1.519932747E+00 7.734819651E-01 -8.605818450E-02
 1.553751111E+00 7.369891405E-01 -8.599015325E-02
 1.587552905E+00 7.004919052E-01 -8.591103554E-02
 1.621331930E+00 6.639905572E-01 -8.584495634E-02
 1.655077696E+00 6.274852157E-01 -8.583424240E-02
 1.688774347E+00 5.909727812E-01 -8.597090840E-02
 1.722391486E+00 5.544322729E-01 -8.652485907E-02
 1.755892754E+00 5.179454088E-01 -8.710623533E-02
 1.789242268E+00 4.814468920E-01 -8.812262863E-02
 1.819963932E+00 4.409172535E-01 -8.886398375E-02
 1.822796106E+00 3.903248012E-01 -8.747343719E-02
 1.834023595E+00 3.419796228E-01 -8.713112772E-02
 1.843890786E+00 2.934419513E-01 -8.705086261E-02
 1.852020264E+00 2.446346581E-01 -8.710820228E-02
 1.858593345E+00 1.955692023E-01 -8.719326556E-02
 1.863377094E+00 1.462958008E-01 -8.728998899E-02
 1.751208119E-02 1.455165595E-01 -8.727315813E-02
 9.930777363E-03 9.638247639E-02 -8.728180081E-02
 5.202941131E-03 4.664770514E-02 -8.712182939E-02
 1.867144823E+00 9.685696661E-02 -8.733996004E-02
 1.869033456E+00 4.718923569E-02 -8.730535209E-02
 1.871054173E+00 -2.781007253E-02 4.304075614E-02
 1.869555712E+00 -5.223443266E-03 8.674623072E-02
 7.978362264E-04 -2.706275322E-02 -4.317941517E-02
 3.807201516E-03 -3.369374201E-03 -8.687181026E-02
 1.871057749E+00 -2.650558762E-02 -4.375714436E-02
 1.871031404E+00 -5.178179592E-02 -5.835942575E-04
 8.725145017E-04 -2.835307084E-02 4.388437048E-02
 3.945776727E-03 -6.085430272E-03 8.798784018E-02
 8.713767165E-04 -5.222642794E-02 3.277316864E-04
 1.869535327E+00 -2.595362253E-03 -8.734488487E-02
 5.501402617E-01 1.651183605E+00 1.386032701E-01
 5.945592523E-01 1.688759804E+00 1.419793814E-01
 6.566942334E-01 1.686960578E+00 1.415123940E-01
 6.991158724E-01 1.652700782E+00 1.381402612E-01
 7.318892479E-01 1.617653608E+00 1.356217712E-01
 7.649851441E-01 1.582153320E+00 1.342364550E-01
 7.982692719E-01 1.546393394E+00 1.334957778E-01
 8.316485882E-01 1.510496497E+00 1.331065595E-01
 8.650736809E-01 1.474532008E+00 1.328659505E-01
 8.985202909E-01 1.438534141E+00 1.326682270E-01
 9.319831133E-01 1.402512074E+00 1.324703395E-01
 9.654692411E-01 1.366458058E+00 1.322681159E-01
 9.989873171E-01 1.330360293E+00 1.320808530E-01
 1.032548308E+00 1.294202209E+00 1.319482476E-01
 1.066155910E+00 1.257976174E+00 1.318913847E-01
 1.099804640E+00 1.221687436E+00 1.319040656E-01
 1.133487225E+00 1.185344577E+00 1.319608539E-01
 1.167197824E+00 1.148955703E+00 1.320325434E-01
 1.200930715E+00 1.112528086E+00 1.320976913E-01
 1.234679222E+00 1.076068640E+00 1.321449429E-01
 1.268435717E+00 1.039584756E+00 1.321685612E-01
 1.302191973E+00 1.003084540E+00 1.321614236E-01
 1.335939765E+00 9.665768147E-01 1.321115047E-01
 1.369672179E+00 9.300685525E-01 1.320067942E-01
 1.403382897E+00 8.935649991E-01 1.318460703E-01
 1.437063336E+00 8.570703864E-01 1.316443980E-01
 1.470704436E+00 8.205870986E-01 1.314302683E-01
 1.504300594E+00 7.841110229E-01 1.312389970E-01
 1.537849545E+00 7.476335764E-01 1.311008930E-01
 1.571347952E+00 7.111498713E-01 1.310187727E-01
 1.604797244E+00 6.746529341E-01 1.309713125E-01
 1.638203263E+00 6.381256580E-01 1.309559047E-01
 1.671559334E+00 6.015518308E-01 1.310169846E-01
 1.704834819E+00 5.649334788E-01 1.312093139E-01
 1.738003254E+00 5.282409191E-01 1.316612214E-01
 1.771016359E+00 4.914084673E-01 1.326429546E-01
 1.803798199E+00 4.547214508E-01 1.340363920E-01
 1.820364356E+00 4.065434933E-01 1.327471435E-01
 1.827299476E+00 3.577308357E-01 1.317509413E-01
 1.837776184E+00 3.097187579E-01 1.314030439E-01
 1.846387267E+00 2.613496780E-01 1.312025785E-01
 1.853511810E+00 2.127566487E-01 1.311570257E-01
 1.859084249E+00 1.639544815E-01 1.311526150E-01
 1.862949371E+00 1.149604991E-01 1.311381012E-01
 1.865803838E+00 6.574696302E-02 1.310045570E-01
 1.867051959E+00 1.625511609E-02 1.306381524E-01
 5.316207409E-01 1.604917526E+00 1.346992403E-01
 5.152314901E-01 1.559947729E+00 1.325381845E-01
 4.988479912E-01 1.514844775E+00 1.316661090E-01
 4.824511111E-01 1.469580054E+00 1.315680891E-01
 4.659951031E-01 1.424115181E+00 1.317575723E-01
 4.494632781E-01 1.378422737E+00 1.319916397E-01
 4.328577816E-01 1.332520008E+00 1.322230548E-01
 4.161900878E-01 1.286438942E+00 1.324609369E-01
 3.994767964E-01 1.240211725E+00 1.327057034E-01
 3.827124238E-01 1.193869233E+00 1.329412758E-01
 3.659125865E-01 1.147423863E+00 1.331460178E-01
 3.490908444E-01 1.100896239E+00 1.333037913E-01
 3.322559297E-01 1.054309607E+00 1.334026903E-01
 3.154174984E-01 1.007688999E+00 1.334305704E-01
 2.985845804E-01 9.610576034E-01 1.333741099E-01
 2.817640901E-01 9.144322276E-01 1.332245022E-01
 2.649604082E-01 8.678200245E-01 1.329879761E-01
 2.481767237E-01 8.212203979E-01 1.326946467E-01
 2.313977927E-01 7.746326327E-01 1.323978603E-01
 2.146449834E-01 7.280427814E-01 1.321525425E-01
 1.979272962E-01 6.814433336E-01 1.319973320E-01
 1.812500507E-01 6.348239183E-01 1.319433898E-01
 1.646202356E-01 5.881806016E-01 1.319597661E-01
 1.480435431E-01 5.415024161E-01 1.319976598E-01
 1.315263957E-01 4.947581887E-01 1.320552826E-01
 1.150926054E-01 4.479547143E-01 1.321127564E-01
 9.877184033E-02 4.010876119E-01 1.321395934E-01
 8.244701475E-02 3.541749418E-01 1.322345287E-01
 6.677243859E-02 3.070724308E-01 1.323741972E-01
 5.194982886E-02 2.596710622E-01 1.324810386E-01
 3.865935281E-02 2.117544711E-01 1.325224191E-01
 2.758772485E-02 1.634256393E-01 1.324924082E-01
 1.866138354E-02 1.143152416E-01 1.323934346E-01
 1.309967320E-02 6.495835632E-02 1.323113889E-01
 1.044269651E-02 1.525464654E-02 1.320471764E-01
 6.919876933E-01 1.660869718E+00 -1.320644319E-01
 6.507979631E-01 1.689925194E+00 -1.334873140E-01
 5.991660357E-01 1.691019297E+00 -1.334500909E-01
 5.572217703E-01 1.662287712E+00 -1.322436780E-01
 5.358885527E-01 1.617021322E+00 -1.309201717E-01
 5.192455649E-01 1.571185231E+00 -1.304374337E-01
 7.251819968E-01 1.625256658E+00 -1.309157014E-01
 5.025556684E-01 1.525174260E+00 -1.304627657E-01
 7.585583329E-01 1.589400053E+00 -1.302696019E-01
 4.858308136E-01 1.478995085E+00 -1.306349933E-01
 4.690632820E-01 1.432681918E+00 -1.307530552E-01
 4.522607327E-01 1.386270642E+00 -1.307405829E-01
 4.354332983E-01 1.339792967E+00 -1.306168288E-01
 4.185892940E-01 1.293273211E+00 -1.304580867E-01
 4.017425179E-01 1.246723652E+00 -1.303460002E-01
 3.848839700E-01 1.200154185E+00 -1.303298175E-01
 3.680190146E-01 1.153558254E+00 -1.304118037E-01
 3.511546850E-01 1.106934309E+00 -1.305316389E-01
 3.342851102E-01 1.060270071E+00 -1.306323409E-01
 3.174098432E-01 1.013562202E+00 -1.307008862E-01
 3.005314767E-01 9.668143988E-01 -1.307352632E-01
 2.836556137E-01 9.200366735E-01 -1.307397485E-01
 2.667892277E-01 8.732416630E-01 -1.307209581E-01
 2.499405742E-01 8.264378309E-01 -1.307178736E-01
 2.330960631E-01 7.796580791E-01 -1.306024790E-01
 2.162761986E-01 7.328937650E-01 -1.304421127E-01
 1.994914860E-01 6.861379743E-01 -1.302848309E-01
 1.827488095E-01 6.393826604E-01 -1.301740855E-01
 1.660559177E-01 5.926164985E-01 -1.301383227E-01
 1.494182646E-01 5.458226204E-01 -1.301579326E-01
 1.328483820E-01 4.989966452E-01 -1.301978379E-01
 1.163647175E-01 4.521282017E-01 -1.302535534E-01
 1.000017002E-01 4.052117467E-01 -1.303226203E-01
 8.364546299E-02 3.583000302E-01 -1.304436177E-01
 6.785117090E-02 3.111723363E-01 -1.305296868E-01
 5.289950222E-02 2.637751698E-01 -1.306058764E-01
 3.941975534E-02 2.158436924E-01 -1.307325661E-01
 2.813622169E-02 1.674192250E-01 -1.307643354E-01
 1.898326352E-02 1.183710471E-01 -1.307019591E-01
 1.317614317E-02 6.912715733E-02 -1.306436062E-01
 1.025149319E-02 1.948328502E-02 -1.304021031E-01
 7.920172215E-01 1.553421855E+00 -1.299684495E-01
 8.255363703E-01 1.517357945E+00 -1.298584789E-01
 8.591005206E-01 1.481231451E+00 -1.298411340E-01
 8.926903605E-01 1.445068836E+00 -1.298442483E-01
 9.262978435E-01 1.408883810E+00 -1.298062503E-01
 9.599297047E-01 1.372670770E+00 -1.297048479E-01
 9.935925007E-01 1.336420178E+00 -1.295652837E-01
 1.027289867E+00 1.300123692E+00 -1.294276416E-01
 1.061020851E+00 1.263778448E+00 -1.293233335E-01
 1.094781280E+00 1.227385998E+00 -1.292678863E-01
 1.128566861E+00 1.190948367E+00 -1.292724460E-01
 1.162371039E+00 1.154468775E+00 -1.293565482E-01
 1.196169734E+00 1.117982864E+00 -1.294167638E-01
 1.229978919E+00 1.081481218E+00 -1.293786466E-01
 1.263789892E+00 1.044966578E+00 -1.292924434E-01
 1.297596097E+00 1.008441567E+00 -1.291815639E-01
 1.331393242E+00 9.719076753E-01 -1.290594637E-01
 1.365178108E+00 9.353637695E-01 -1.289406717E-01
 1.398948789E+00 8.988057971E-01 -1.288498938E-01
 1.432703137E+00 8.622250557E-01 -1.288357228E-01
 1.466433764E+00 8.255958557E-01 -1.290794313E-01
 1.500142217E+00 7.889905572E-01 -1.290661693E-01
 1.533823371E+00 7.523829341E-01 -1.289818585E-01
 1.567473412E+00 7.157644033E-01 -1.288707554E-01
 1.601084948E+00 6.791303754E-01 -1.287619025E-01
 1.634644270E+00 6.424781084E-01 -1.286962032E-01
 1.668128371E+00 6.058030128E-01 -1.287506223E-01
 1.701500773E+00 5.690923929E-01 -1.290721744E-01
 1.734739184E+00 5.323199630E-01 -1.297382563E-01
 1.767777324E+00 4.954853356E-01 -1.308422834E-01
 1.800511122E+00 4.585875273E-01 -1.326261163E-01
 1.820484042E+00 4.115323424E-01 -1.319604963E-01
 1.826255441E+00 3.626411557E-01 -1.310520619E-01
 1.836891770E+00 3.145575523E-01 -1.308099627E-01
 1.845653653E+00 2.660713494E-01 -1.307586432E-01
 1.852938175E+00 2.173354477E-01 -1.308735311E-01
 1.858689666E+00 1.683563888E-01 -1.309907436E-01
 1.862655282E+00 1.191758886E-01 -1.310812086E-01
 1.865615129E+00 6.983897090E-02 -1.311151087E-01
 1.868899584E+00 -5.537329242E-02 8.610151708E-02
 1.866855145E+00 -3.352580220E-02 1.299869567E-01
 1.869459033E+00 -7.848851383E-02 4.233890027E-02
 5.589190871E-03 -5.348900706E-02 -8.665161580E-02
 4.024174064E-03 -7.773961872E-02 -4.313018546E-02
 5.905080121E-03 -5.622289702E-02 8.774507046E-02
 4.199411720E-03 -7.908660173E-02 4.390430078E-02
 1.869476080E+00 -7.691889256E-02 -4.432923719E-02
 1.868892550E+00 -1.025222465E-01 -1.409146353E-03
 5.761297885E-03 -1.031363308E-01 2.986328909E-04
 1.055216417E-02 -3.030832857E-02 -1.300534606E-01
 1.868909717E+00 -5.247663707E-02 -8.762387931E-02
 1.100763492E-02 -3.455593437E-02 1.316077113E-01
 1.866972089E+00 2.036550082E-02 -1.311245263E-01
 9.815580845E-01 1.344067693E+00 1.763811707E-01
 9.481535554E-01 1.380160689E+00 1.766020060E-01
 9.147909880E-01 1.416193962E+00 1.768270582E-01
 8.814600110E-01 1.452179790E+00 1.770560890E-01
 8.481598496E-01 1.488115668E+00 1.773276329E-01
 8.149026632E-01 1.523978472E+00 1.777357459E-01
 7.817134857E-01 1.559722543E+00 1.784595996E-01
 1.014985442E+00 1.307931900E+00 1.761850715E-01