TITLE     = "Translation of CGNS file Paraboloid_Tube_Volume_3.cgns"
VARIABLES = "CoordinateX"
"CoordinateY"
"CoordinateZ"
ZONE T="Paraboloid_Part0"
 STRANDID=1, SOLUTIONTIME=3
 Nodes=4921, Elements=22647, ZONETYPE=FETetrahedron
 DATAPACKING=POINT
 AUXDATA CGNS.CGNSBase_t=""
 AUXDATA CGNS.Zone_t=""
 DT=(DOUBLE DOUBLE DOUBLE )
 -3.406334532E-02 -3.396025352E-02 2.314824733E-02
 -3.303588005E-02 -4.544675078E-02 3.160976360E-02
 -2.146876399E-02 -3.664594354E-02 1.804621348E-02
 -7.409290794E-03 -5.508352255E-02 3.093086920E-02
 -2.111607468E-02 -5.169773905E-02 3.122632597E-02
 -1.476999651E-02 -4.634259750E-02 2.367130815E-02
 -7.891888120E-03 -3.979123470E-02 1.646502293E-02
 -4.096327431E-02 -4.714718748E-02 1.293008878E-01
 -1.173553532E-02 -6.134430977E-02 9.641058702E-02
 -8.481526033E-03 -6.187819362E-02 9.025358065E-02
 -1.095945078E-02 -6.148770258E-02 1.332261868E-01
 -8.953170187E-03 -6.181171308E-02 1.270830271E-01
 -1.300976758E-02 -6.108676679E-02 1.210367848E-01
 -7.164609385E-03 -6.204446391E-02 1.209736363E-01
 -1.876399195E-02 -5.957146747E-02 1.210939091E-01
 -1.703602788E-02 -6.008844218E-02 1.149845183E-01
 -2.047074511E-02 -5.900674304E-02 1.276832659E-01
 -2.434247697E-02 -5.751774461E-02 1.216309994E-01
 -9.442902738E-03 -6.173879427E-02 1.088115510E-01
 -1.528475052E-02 -6.055760507E-02 1.087554742E-01
 -1.351114260E-02 -6.097783331E-02 1.026396311E-01
 -2.097829289E-02 -5.882821056E-02 1.088125984E-01
 -1.752934274E-02 -5.994638666E-02 9.635451022E-02
 -3.042349408E-02 -5.454592687E-02 4.542172503E-02
 -3.633940366E-02 -5.079660295E-02 4.542172503E-02
 -2.412499141E-02 -5.760930410E-02 4.542172503E-02
 -2.753505042E-02 -5.605950525E-02 5.180797376E-02
 -1.752310297E-02 -5.994821092E-02 4.542172503E-02
 -2.457154397E-02 -5.742026086E-02 5.819422248E-02
 -3.084607269E-02 -5.430807426E-02 5.819422248E-02
 -1.070085135E-02 -6.153323419E-02 4.542172503E-02
 -1.437027575E-02 -6.078110154E-02 5.180797376E-02
 -1.117827399E-02 -6.144829795E-02 5.819422248E-02
 -1.798801384E-02 -5.981035436E-02 5.819422248E-02
 -7.857507511E-03 -6.196052538E-02 6.452796554E-02
 -2.154105350E-02 -5.862448417E-02 6.458047121E-02
 -1.845184037E-02 -5.966889237E-02 7.096671994E-02
 -2.501661534E-02 -5.722775626E-02 7.096671994E-02
 -1.151544847E-02 -6.138600473E-02 7.093276396E-02
 -1.517458211E-02 -6.058530505E-02 7.731901268E-02
 -1.199170347E-02 -6.129474837E-02 8.370526141E-02
 -1.891455460E-02 -5.952383350E-02 8.373921739E-02
 -3.180526304E-02 -5.375195227E-02 1.305367772E-01
 -3.580099194E-02 -5.117749609E-02 1.266241541E-01
 -3.023168302E-02 -5.465246995E-02 1.243077331E-01
 -3.957754262E-02 -4.831630419E-02 1.230718437E-01
 -2.864620663E-02 -5.549992771E-02 1.177183762E-01
 -4.312633083E-02 -4.517705965E-02 1.195195332E-01
 -3.815846052E-02 -4.944470670E-02 1.168427995E-01
 -3.670722384E-02 -5.053144415E-02 1.106137554E-01
 -3.277101121E-02 -5.316867456E-02 1.141660658E-01
 -4.043219224E-02 -4.760341333E-02 1.070614450E-01
 -3.522505546E-02 -5.157560080E-02 1.043847113E-01
 -2.702322168E-02 -5.630801559E-02 1.114893321E-01
 -4.642693389E-02 -4.177782833E-02 1.159672228E-01
 -4.946035733E-02 -3.813817226E-02 1.124149124E-01
 -4.519474874E-02 -4.310779298E-02 1.097381787E-01
 -5.220914428E-02 -3.427903708E-02 1.088626020E-01
 -4.392447982E-02 -4.440143244E-02 1.035091346E-01
 -2.537746534E-02 -5.706865499E-02 1.052602880E-01
 -2.963059453E-02 -5.498067841E-02 1.017079776E-01
 -2.371032445E-02 -5.778120494E-02 9.903124393E-02
 -3.371320436E-02 -5.257629677E-02 9.815566722E-02
 -2.202320382E-02 -5.844506501E-02 9.280219982E-02
 -5.392714436E-02 -3.150730440E-02 1.024763533E-01
 -5.033133707E-02 -3.698112543E-02 9.979961960E-02
 -4.831382698E-02 -3.958056660E-02 9.073663717E-02
 -4.618210148E-02 -4.204831308E-02 9.712288590E-02
 -5.031384506E-02 -3.700492029E-02 8.435038845E-02
 -4.616221393E-02 -4.207014542E-02 8.167365474E-02
 -4.152506132E-02 -4.665315007E-02 9.444615220E-02
 -4.388247007E-02 -4.444295164E-02 7.261067232E-02
 -4.150299691E-02 -4.667277983E-02 7.899692104E-02
 -3.638742538E-02 -5.076221434E-02 7.632018734E-02
 -3.901038321E-02 -4.877537423E-02 8.538316977E-02
 -3.366346827E-02 -5.260815558E-02 6.725720491E-02
 -3.087174861E-02 -5.429348274E-02 7.364345364E-02
 -3.641142403E-02 -5.074500300E-02 9.176941850E-02
 -4.614231605E-02 -4.209196835E-02 6.622442359E-02
 -4.148092322E-02 -4.669239915E-02 6.354768989E-02
 -3.896423926E-02 -4.881224425E-02 5.448470746E-02
 -3.636341858E-02 -5.077941432E-02 6.087095618E-02
 -4.145884026E-02 -4.671200803E-02 4.809845873E-02
 -3.089741763E-02 -5.427887907E-02 8.909268479E-02
 -2.799587005E-02 -5.583080144E-02 8.002970237E-02
 -2.504367248E-02 -5.721592085E-02 8.641595109E-02
 -5.056498804E-02 -3.666100264E-02 6.622442359E-02
 -5.242561130E-02 -3.394705303E-02 7.528740602E-02
 -5.081378023E-02 -3.631538061E-02 4.809845873E-02
 -4.642824128E-02 -4.177637540E-02 4.809845873E-02
 -4.856401335E-02 -3.927319362E-02 5.716144116E-02
 -1.333421632E-02 -3.916074749E-02 7.753052419E-02
 -4.441944905E-02 -4.390626010E-02 1.257485774E-01
 -2.267697478E-02 -5.819451817E-02 1.150416425E-01
 -2.796946753E-02 -5.584403295E-02 6.458047121E-02
 -3.903344211E-02 -4.875692287E-02 1.008324009E-01
 -4.829510605E-02 -3.960340719E-02 7.528740602E-02
 -2.764401954E-02 -4.121039383E-02 2.464107002E-02
 -5.288365186E-02 -3.322900082E-02 3.903547630E-02
 -4.416360000E-02 -4.416360000E-02 3.903547630E-02
 -3.322900082E-02 -5.288365186E-02 3.903547630E-02
 -2.062816079E-02 -5.895189660E-02 3.903547630E-02
 -6.992938646E-03 -6.206404707E-02 3.903547630E-02
 -4.869605820E-02 -3.294796439E-02 3.461484561E-02
 -4.437356527E-02 -3.848327982E-02 3.454588654E-02
 -5.318211463E-02 -3.274919561E-02 1.150916461E-01
 -5.330257960E-02 -3.255275930E-02 1.228838058E-01
 -5.068150871E-02 -3.649975075E-02 1.264361163E-01
 -5.342231900E-02 -3.235587987E-02 1.306759656E-01
 -4.761999693E-02 -4.041265919E-02 1.221962669E-01
 -4.776877381E-02 -4.023669194E-02 1.299884267E-01
 -5.054649931E-02 -3.668648986E-02 1.186439565E-01
 -3.727136245E-02 -5.011679031E-02 1.328531982E-01
 -7.637314870E-03 -6.198805168E-02 1.026957079E-01
 -1.476823737E-02 -6.068563500E-02 1.271461756E-01
 -1.124044827E-02 -6.143695511E-02 1.149273940E-01
 -2.598781100E-02 -5.679331659E-02 1.282203562E-01
 -1.926193344E-02 -5.941233079E-02 1.025835543E-01
 -2.108524267E-02 -5.878996234E-02 5.180797376E-02
 -3.363858894E-02 -5.262406735E-02 5.180797376E-02
 -7.474594284E-03 -6.200788313E-02 5.180797376E-02
 -1.484174822E-02 -6.066769849E-02 6.458047121E-02
 -8.154963438E-03 -6.192207766E-02 7.728505670E-02
 -2.199556582E-02 -5.845547206E-02 7.735296866E-02
 -3.430045338E-02 -5.219507666E-02 1.203951100E-01
 -4.179687181E-02 -4.640979032E-02 1.132904891E-01
 -3.121395424E-02 -5.409746936E-02 1.079370217E-01
 -4.833253710E-02 -3.955771717E-02 1.061858683E-01
 -2.802226631E-02 -5.581755746E-02 9.547893352E-02
 -5.219292973E-02 -3.430372015E-02 9.341337087E-02
 -4.390347985E-02 -4.442219701E-02 8.805990347E-02
 -3.898731559E-02 -4.879381470E-02 6.993393861E-02
 -3.368834008E-02 -5.259223205E-02 8.270643607E-02
 -4.386145048E-02 -4.446369633E-02 5.716144116E-02
 -5.265585558E-02 -3.358880771E-02 5.716144116E-02
 -1.545566525E-02 -3.176518217E-02 1.248760596E-02
 -1.389793703E-02 -6.089084066E-02 3.903547630E-02
 -1.597885478E-02 -4.784191228E-02 3.779772186E-02
 -3.142699923E-02 -4.450706201E-02 1.141712792E-01
 -1.704811483E-02 -3.214279642E-02 4.107870621E-02
 -1.686533255E-02 -5.093008207E-02 4.844464379E-02
 -8.194870056E-03 -4.193335939E-02 3.878284918E-02
 -1.436634994E-02 -4.076262842E-02 1.312716919E-01
 -3.285080720E-02 -4.312020165E-02 1.250415536E-01
 -1.922109354E-02 -3.924539976E-02 9.336449526E-02
 -2.757390722E-02 -4.497083505E-02 9.179798568E-02
 -1.875977811E-02 -3.506983622E-02 2.581474416E-02
 -1.278740647E-02 -5.310305459E-02 9.377511059E-02
 -2.450363303E-02 -4.932836341E-02 1.079243537E-01
 -2.298462585E-02 -3.577447023E-02 4.837376526E-02
 -1.325292472E-02 -4.192826641E-02 1.178057814E-01
 -1.084928180E-02 -3.970899073E-02 5.766258174E-02
 -2.285906514E-02 -4.252066055E-02 3.501992590E-02
 -7.781791467E-03 -4.157985620E-02 2.954072943E-02
 -4.244476556E-02 -3.411447565E-02 9.605578105E-02
 -2.256854049E-02 -3.893102018E-02 1.303025776E-01
 -6.109734219E-03 -3.299815587E-02 6.270848739E-02
 -1.774665501E-02 -5.129728246E-02 7.024066707E-02
 -3.146389573E-02 -3.573622630E-02 1.167619170E-01
 -1.688077469E-02 -3.902841672E-02 6.551324556E-02
 -1.074238634E-02 -4.463067067E-02 9.369109151E-02
 -1.785297664E-02 -3.718868154E-02 1.234983426E-01
 -2.146484625E-02 -3.430486735E-02 1.018233957E-01
 -1.591008885E-02 -4.210198761E-02 4.497338964E-02
 -2.549519344E-02 -3.666075271E-02 7.512625252E-02
 -2.921029877E-02 -4.730950813E-02 1.021783730E-01
 -3.215098601E-02 -3.902738675E-02 5.311032209E-02
 -1.213440510E-02 -5.210920743E-02 1.139761412E-01
 -1.559386215E-02 -3.181339085E-02 5.397158326E-02
 -8.926919098E-03 -5.069056540E-02 4.317002804E-02
 -1.243809960E-02 -3.398336689E-02 8.698668356E-02
 -7.763482292E-03 -3.499088403E-02 1.183829164E-01
 -1.052920366E-02 -4.030233010E-02 1.044904112E-01
 -1.539657705E-02 -4.909713147E-02 1.222825574E-01
 -2.418091892E-02 -4.722818058E-02 1.306593215E-01
 -3.960086719E-02 -3.410908123E-02 1.261065133E-01
 -2.162792446E-02 -4.571321524E-02 7.522687127E-02
 -1.537888331E-02 -5.042438927E-02 6.219454960E-02
 -9.758272391E-03 -3.424054269E-02 2.512664390E-02
 -3.975750004E-02 -3.338994888E-02 1.097112430E-01
 -2.086881204E-02 -3.290091829E-02 1.132411208E-01
 -3.338835448E-02 -3.678213190E-02 9.383302912E-02
 -6.115949675E-03 -4.098390443E-02 6.768887582E-02
 -6.699129125E-03 -3.956107819E-02 1.268037509E-01
 -7.508280742E-03 -3.466545885E-02 4.535385430E-02
 -2.967900008E-02 -4.263433523E-02 6.661086996E-02
 -4.421778814E-02 -3.247340349E-02 3.013455358E-02
 -3.945156250E-02 -4.347008074E-02 3.450687308E-02
 -3.986217758E-02 -3.210470424E-02 2.621875502E-02
 -3.894115422E-02 -4.883066289E-02 3.903547630E-02
 -1.578198077E-02 -6.042992812E-02 9.012546612E-02
 -4.883066289E-02 -3.894115422E-02 3.903547630E-02
 -2.709897347E-02 -5.627159823E-02 3.903547630E-02
 -3.977173316E-02 -3.789988344E-02 3.021943240E-02
 -1.066939962E-02 -5.807310256E-02 3.490913534E-02
 -1.755529076E-02 -5.644955137E-02 3.499324843E-02
 -1.432690659E-02 -5.363104504E-02 3.085519485E-02
 -1.797285879E-02 -4.910164491E-02 2.736618578E-02
 -1.112472505E-02 -5.087348762E-02 2.714404971E-02
 -2.446899663E-02 -4.662355204E-02 2.775267970E-02
 -2.131209523E-02 -4.399342158E-02 2.391031610E-02
 -7.270041665E-03 -4.707197459E-02 2.269741894E-02
 -2.413364515E-02 -5.404316233E-02 3.507672547E-02
 -3.016024322E-02 -5.101617392E-02 3.516856094E-02
 -2.718598137E-02 -4.876958374E-02 3.121634597E-02
 -1.135988966E-02 -4.317693986E-02 1.994080958E-02
 -1.818910454E-02 -4.165394256E-02 2.066725321E-02
 -1.476581254E-02 -3.844114365E-02 1.696596114E-02
 -1.171901500E-02 -3.591685644E-02 1.428330904E-02
 -3.648776055E-02 -4.176942353E-02 3.079993457E-02
 -3.601984091E-02 -4.717973554E-02 3.527907842E-02
 -3.696126468E-02 -3.597262436E-02 2.662492143E-02
 -3.365757705E-02 -3.983127005E-02 2.721926579E-02
 -3.092832790E-02 -3.767625525E-02 2.377430269E-02
 -3.037367839E-02 -4.337674022E-02 2.807012069E-02
 -3.097086757E-02 -3.177876761E-02 1.969861615E-02
 -2.781552694E-02 -3.548626286E-02 2.033785232E-02
 -2.468772069E-02 -3.315726770E-02 1.709725150E-02
 -2.459646318E-02 -3.899169215E-02 2.126227876E-02
 -1.849643890E-02 -3.426897133E-02 1.517435292E-02
 -3.504755413E-02 -3.298624466E-02 7.581186874E-02
 -1.941066477E-02 -4.779864336E-02 9.212126438E-02
 -1.267550430E-02 -5.346806348E-02 1.277947468E-01
 -2.215467234E-02 -4.516178800E-02 5.565897383E-02
 -1.123931325E-02 -5.441348079E-02 8.006901140E-02
 -2.175946974E-02 -5.154741492E-02 1.251595088E-01
 -2.554820764E-02 -4.500376933E-02 1.206537955E-01
 -2.187911415E-02 -4.537646569E-02 1.008900359E-01
 -1.560213200E-02 -4.871636703E-02 8.432306845E-02
 -2.984564867E-02 -4.422939966E-02 3.823627090E-02
 -1.909548407E-02 -5.259865140E-02 5.585791406E-02
 -1.546476392E-02 -3.891808268E-02 3.287884967E-02
 -2.480484220E-02 -4.009679725E-02 1.115723654E-01
 -2.312789430E-02 -5.040519810E-02 1.155452617E-01
 -1.399174869E-02 -5.117367612E-02 1.027850517E-01
 -8.427739795E-03 -4.599744900E-02 1.099840054E-01
 -3.020428673E-02 -3.699432989E-02 4.144285308E-02
 -3.852950043E-02 -3.735829631E-02 4.570730059E-02
 -2.445316183E-02 -4.738431037E-02 4.230293330E-02
 -7.913028945E-03 -5.430155572E-02 1.080028101E-01
 -3.421730040E-02 -3.288309277E-02 3.383951558E-02
 -8.676014292E-03 -4.876746733E-02 5.424265194E-02
 -1.271509946E-02 -3.617161779E-02 1.115832075E-01
 -3.092701410E-02 -3.776100227E-02 1.316526208E-01
 -9.315726309E-03 -4.885779158E-02 7.491397704E-02
 -7.297922219E-03 -4.320082184E-02 4.739729754E-02
 -2.408087045E-02 -3.544185183E-02 5.866511612E-02
 -2.638996113E-02 -3.526239914E-02 3.235743079E-02
 -2.434036869E-02 -3.784078587E-02 8.483124469E-02
 -8.896228785E-03 -4.269814661E-02 8.505506324E-02
 -1.828220369E-02 -4.534204366E-02 1.115542318E-01
 -3.866012670E-02 -3.940944975E-02 1.159529647E-01
 -3.454893693E-02 -3.951493416E-02 8.387752515E-02
 -9.977638007E-03 -5.360663055E-02 6.791309799E-02
 -8.914999930E-03 -4.786645702E-02 1.311673017E-01
 -3.086751178E-02 -4.052797190E-02 1.058177257E-01
 -1.183059417E-02 -2.450157950E-02 7.406344006E-03
 -3.347284598E-02 -2.157754407E-02 1.586938609E-02
 -2.777327937E-02 -2.948942936E-02 1.641862606E-02
 -3.168195197E-02 -9.090749797E-03 1.087025507E-02
 -2.136701079E-02 -2.455371173E-02 1.060033251E-02
 -2.300200732E-02 -8.483725185E-03 6.015314417E-03
 -1.363886781E-02 -8.554847436E-03 2.598638997E-03
 -1.770774667E-02 -1.700431215E-02 6.031738908E-03
 -6.153828717E-02 -1.067175439E-02 4.809845873E-02
 -5.995648995E-02 -1.749475473E-02 4.809845873E-02
 -6.079466423E-02 -1.431278909E-02 5.716144116E-02
 -5.762070508E-02 -2.409774837E-02 4.809845873E-02
 -5.983581087E-02 -1.790315245E-02 6.622442359E-02
 -5.456030641E-02 -3.039769884E-02 4.809845873E-02
 -5.608551987E-02 -2.748202305E-02 5.716144116E-02
 -5.435177596E-02 -3.076900356E-02 6.622442359E-02
 -5.745505876E-02 -2.449006640E-02 6.622442359E-02
 -5.866512172E-02 -2.143013355E-02 7.528740602E-02
 -5.728674134E-02 -2.488124588E-02 8.435038845E-02
 -5.414071867E-02 -3.113887781E-02 8.435038845E-02
 -5.570554960E-02 -2.824427152E-02 9.341337087E-02
 -1.367572523E-02 -2.820059578E-02 9.827950208E-03
 -7.425622841E-03 -2.663327032E-02 7.648123231E-03
 -2.437460155E-02 -1.108811980E-02 7.252028383E-02
 -6.090638304E-02 -1.382966505E-02 1.064560449E-01
 -6.069566142E-02 -1.472697575E-02 7.528740602E-02
 -2.674579949E-02 -1.673025830E-02 9.957516498E-03
 -1.838895480E-02 -8.551147882E-03 4.120496270E-03
 -1.573209377E-02 -1.282751270E-02 4.128169470E-03
 -6.206404707E-02 -6.992938646E-03 3.903547630E-02
 -5.895189660E-02 -2.062816079E-02 3.903547630E-02
 -5.886123188E-02 -6.979413452E-03 3.517921349E-02
 -5.748137086E-02 -1.385513034E-02 3.500656118E-02
 -5.538548920E-02 -6.923987771E-03 3.119572416E-02
 -5.532561629E-02 -2.051941637E-02 3.486565908E-02
 -5.214382639E-02 -6.928007317E-03 2.769733920E-02
 -5.233438191E-02 -2.696087591E-02 3.470382376E-02
 -5.135141930E-02 -2.036427628E-02 3.055541561E-02
 -4.719416117E-02 -2.013071267E-02 2.634754018E-02
 -4.991149336E-02 -1.357658754E-02 2.677868815E-02
 -4.405383627E-02 -2.647089649E-02 2.643702975E-02
 -4.290863159E-02 -1.980881537E-02 2.234590303E-02
 -4.798613219E-02 -6.693702230E-03 2.348769730E-02
 -6.235948509E-02 -3.484501289E-03 1.308906184E-01
 -6.158308632E-02 -1.041012053E-02 1.146009027E-01
 -6.090638304E-02 -1.382966505E-02 1.314560449E-01
 -6.235948509E-02 -3.484501289E-03 1.058906184E-01
 -6.235948509E-02 -3.484501289E-03 8.089061844E-02
 -6.206795713E-02 -6.958148292E-03 9.774576058E-02
 -6.235948509E-02 -3.484501289E-03 5.589061844E-02
 -6.158308632E-02 -1.041012053E-02 8.960090271E-02
 -6.003995523E-02 -1.720612990E-02 1.233111870E-01
 -6.234620473E-02 -3.714550558E-03 4.809845873E-02
 -6.204186286E-02 -7.187098337E-03 6.495360087E-02
 -6.150459479E-02 -1.086425101E-02 7.401658330E-02
 -6.154425943E-02 -1.063725817E-02 8.180874300E-02
 -6.146409293E-02 -1.109109597E-02 6.622442359E-02
 -6.074958295E-02 -1.450294115E-02 8.307956573E-02
 -6.085494447E-02 -1.405428274E-02 9.866388514E-02
 -5.977950029E-02 -1.809028674E-02 9.214254815E-02
 -5.984583687E-02 -1.786960939E-02 9.993470786E-02
 -5.875566988E-02 -2.118061347E-02 1.167898500E-01
 -5.991135880E-02 -1.764868880E-02 1.077268676E-01
 -5.739196917E-02 -2.463755274E-02 1.258528324E-01
 -5.997606522E-02 -1.742752796E-02 1.155190273E-01
 -5.971234999E-02 -1.831071785E-02 8.435038845E-02
 -5.859778120E-02 -2.161358758E-02 1.012055306E-01
 -5.720860929E-02 -2.506037016E-02 1.102685130E-01
 -5.730067922E-02 -2.484913058E-02 1.180606727E-01
 -5.711576063E-02 -2.527126862E-02 1.024763533E-01
 -5.561690263E-02 -2.841843191E-02 1.193314954E-01
 -5.891035940E-02 -2.074648611E-02 1.323741694E-01
 -6.206795713E-02 -6.958148292E-03 1.227457606E-01
 -6.206795713E-02 -6.958148292E-03 7.274576058E-02
 -6.201492407E-02 -7.415950551E-03 5.716144116E-02
 -6.080267754E-02 -1.427870913E-02 9.087172543E-02
 -5.867712490E-02 -2.139724615E-02 1.089976903E-01
 -5.883341506E-02 -2.096369247E-02 1.245820097E-01
 -5.851763986E-02 -2.182963479E-02 9.341337087E-02
 -5.572137283E-02 -2.821304201E-02 1.271236551E-01
 -5.880987620E-02 -2.102963601E-02 5.716144116E-02
 -5.589683407E-02 -2.786379499E-02 7.528740602E-02
 -2.229670090E-02 -1.692035152E-02 7.837837936E-03
 -1.094336396E-02 -1.277082326E-02 2.835729908E-03
 -1.297874867E-02 -1.700379905E-02 4.582921718E-03
 -1.160104471E-02 -4.295894554E-03 1.531231500E-03
 -9.266178476E-03 -3.034841063E-02 1.007415538E-02
 -2.043811473E-02 -1.279613312E-02 5.819548857E-03
 -5.627159823E-02 -2.709897347E-02 3.903547630E-02
 -8.149979527E-03 -1.687257317E-02 3.519054177E-03
 -3.967835254E-02 -2.608863043E-02 2.256078930E-02
 -2.146999948E-02 -2.070488948E-02 1.837441846E-02
 -1.283522412E-02 -1.753423130E-02 7.180102813E-02
 -4.266047859E-02 -2.741789039E-02 6.794364587E-02
 -1.142523229E-02 -2.221119806E-02 1.174030570E-01
 -1.796335366E-02 -1.142321238E-02 3.643936083E-02
 -2.323734279E-02 -2.050760835E-02 3.653171189E-02
 -1.556486487E-02 -1.761135123E-02 1.213667901E-02
 -1.416873808E-02 -2.049204653E-02 5.166833931E-02
 -3.031658893E-02 -7.200307166E-03 1.930635004E-02
 -1.022472031E-02 -2.405678074E-02 3.009554820E-02
 -3.414827905E-02 -1.454700572E-02 2.392429226E-02
 -4.535290248E-02 -2.267945410E-02 9.884180436E-02
 -6.573791982E-03 -5.444452965E-03 3.860644812E-02
 -3.198770178E-02 -1.230675383E-02 1.150810870E-01
 -1.470302384E-02 -2.965250675E-02 9.587033968E-02
 -6.481308838E-03 -1.740673616E-02 2.404141006E-02
 -2.193659317E-02 -4.942191823E-03 2.335384891E-02
 -1.544109835E-02 -2.139110408E-02 8.960152860E-02
 -3.064408950E-02 -1.724629749E-02 9.471296900E-02
 -1.012469754E-02 -2.428915309E-02 1.586220060E-02
 -3.273923239E-02 -3.082813019E-02 1.024002766E-01
 -4.213071650E-02 -1.424889886E-02 9.064018061E-02
 -1.239534119E-02 -3.036935542E-02 1.242127273E-01
 -3.112344567E-02 -2.170804275E-02 7.560459665E-02
 -2.480622650E-02 -2.876568612E-02 2.410575157E-02
 -3.268121232E-02 -1.113903748E-02 1.332407766E-01
 -2.335285623E-02 -1.781319242E-02 1.305749972E-01
 -7.003614656E-03 -1.476595434E-02 9.491596737E-02
 -2.538531851E-02 -4.689172218E-03 6.141141347E-02
 -2.294852229E-02 -2.503188297E-02 5.926208469E-02
 -2.053559744E-02 -7.369136371E-03 8.325120509E-02
 -4.660141696E-02 -1.515570580E-02 3.711600060E-02
 -1.969694985E-02 -2.854553748E-02 1.204389921E-01
 -2.841582073E-02 -2.882347653E-02 8.238341708E-02
 -2.117812411E-02 -1.716699987E-02 1.204759089E-01
 -1.062385192E-02 -6.483310228E-03 6.226978045E-02
 -3.425937221E-02 -9.423477338E-03 4.163696220E-02
 -1.022303123E-02 -9.110787428E-03 6.803660766E-03
 -1.697857555E-02 -1.550398118E-02 1.128043785E-01
 -9.171058422E-03 -1.192727316E-02 3.071300009E-02
 -4.052450490E-02 -1.780855378E-02 4.462029164E-02
 -2.016493606E-02 -2.135144526E-02 8.033992480E-02
 -3.129707522E-02 -2.225111545E-03 5.025997332E-02
 -2.447843621E-02 -2.576370114E-02 4.552242300E-02
 -2.256200556E-02 -7.844362755E-03 9.505752930E-02
 -1.939854588E-02 -2.803806230E-02 3.032239532E-02
 -3.652656460E-02 -2.038609876E-02 1.066478024E-01
 -3.203255955E-02 -2.234841663E-02 1.296914077E-01
 -1.787367176E-02 -1.512661923E-02 6.131169996E-02
 -1.517916168E-02 -5.219170455E-03 1.838036654E-02
 -3.844618486E-02 -1.389586021E-02 7.031434882E-02
 -1.206020675E-02 -8.763547212E-03 1.150014953E-01
 -7.977141101E-03 -2.414751017E-02 1.268343519E-01
 -1.344881343E-02 -1.740161486E-02 1.827745009E-02
 -1.154800462E-02 -1.043586996E-02 1.319520088E-01
 -4.614306846E-02 -7.474155841E-03 1.087616456E-01
 -3.322109510E-02 -2.990120402E-02 4.766683491E-02
 -2.202526655E-02 -5.453204023E-03 1.131774381E-01
 -7.652184596E-03 -2.337381467E-02 1.021326949E-01
 -2.828808871E-02 -1.148366162E-02 3.277349431E-02
 -2.544817212E-02 -1.354794232E-02 1.049085747E-01
 -2.508765844E-02 -2.514855056E-02 1.066973706E-01
 -3.927569052E-02 -3.011239408E-02 3.982790705E-02
 -6.181711846E-03 -9.577607363E-03 1.952650531E-02
 -1.598535920E-02 -4.907562602E-03 1.060856261E-02
 -3.088427231E-02 -1.735338535E-02 5.539517822E-02
 -4.662134577E-02 -1.377632835E-02 5.678109343E-02
 -4.965080708E-02 -8.925867687E-03 4.379607105E-02
 -9.367539769E-03 -2.423978518E-02 6.158860635E-02
 -4.509805337E-02 -1.977631221E-02 7.867350189E-02
 -3.177685791E-02 -1.223898736E-02 8.383779340E-02
 -1.564911712E-02 -2.673552381E-02 2.113642263E-02
 -2.451184517E-02 -1.282924744E-02 4.507906847E-02
 -9.819609373E-03 -2.103988748E-02 8.099174587E-02
 -2.761916206E-02 -3.038122838E-02 1.251429234E-01
 -2.495243305E-02 -1.264679340E-02 7.829078039E-03
 -1.619850528E-02 -4.296391756E-03 2.815679366E-03
 -6.846144736E-03 -4.296412527E-03 6.454590076E-04
 -1.482248037E-02 -2.082785446E-02 6.539027296E-03
 -8.937459021E-03 -8.588802832E-03 1.537347727E-03
 -1.958988723E-02 -2.083485744E-02 8.182069648E-03
 -2.088878909E-02 -4.258217305E-03 4.551936786E-03
 -1.665502348E-02 -2.461072201E-02 8.834694157E-03
 -4.080920250E-02 -6.702743758E-03 1.711154103E-02
 -4.206530289E-02 -1.334405488E-02 1.948325048E-02
 -3.703994514E-02 -6.703182332E-03 1.417864422E-02
 -4.448463643E-02 -6.694492719E-03 2.024500258E-02
 -3.917942662E-02 -1.980031921E-02 1.927848636E-02
 -5.551167535E-02 -2.862343497E-02 1.115393357E-01
 -6.089084066E-02 -1.389793703E-02 3.903547630E-02
 -5.396868707E-02 -1.378744528E-02 3.106751332E-02
 -4.826808695E-02 -2.675628147E-02 3.049555696E-02
 -4.568619216E-02 -1.332000234E-02 2.265760241E-02
 -3.831373288E-02 -1.332665256E-02 1.646419886E-02
 -2.958403832E-02 -4.562612284E-03 8.964356932E-03
 -2.522237407E-02 -4.257065655E-03 6.546872365E-03
 -2.742077611E-02 -8.812561307E-03 8.299173382E-03
 -1.001987250E-02 -2.074833990E-02 5.314792041E-03
 -6.179108828E-03 -1.276100766E-02 2.014350390E-03
 -3.696162237E-02 -3.009836005E-02 2.273197398E-02
 -3.663769544E-02 -2.387354985E-02 1.913034675E-02
 -3.391651546E-02 -2.789095053E-02 1.929003785E-02
 -3.071209452E-02 -2.560772140E-02 1.599896755E-02
 -3.017731391E-02 -1.919715344E-02 1.280091353E-02
 -2.740709703E-02 -2.323493886E-02 1.291913463E-02
 -3.599364069E-02 -1.750089128E-02 1.602730160E-02
 -3.506740259E-02 -1.123097910E-02 1.356810360E-02
 -3.274800314E-02 -1.541445013E-02 1.310956491E-02
 -3.361446226E-02 -4.560385295E-03 1.151458785E-02
 -2.930001248E-02 -1.294857051E-02 1.026709411E-02
 -2.462196514E-02 -2.707856083E-02 1.340432009E-02
 -2.151785744E-02 -3.074265528E-02 1.409101980E-02
 -2.413403424E-02 -2.070859591E-02 1.011830819E-02
 -1.846661462E-02 -2.824399044E-02 1.139451505E-02
 -2.330346647E-02 -5.049217261E-03 1.507161930E-02
 -1.951392893E-02 -1.221658041E-02 1.393354328E-02
 -6.537887912E-03 -5.546622586E-03 7.278700969E-02
 -1.401252783E-02 -4.080971986E-03 1.053967324E-01
 -3.122465023E-02 -1.954671300E-02 4.210829143E-02
 -4.586245740E-02 -2.468124758E-02 1.094044175E-01
 -3.418725671E-02 -2.422598617E-03 2.513545131E-02
 -1.051591710E-02 -2.913289871E-02 7.294132865E-02
 -1.276240630E-02 -2.118225065E-02 4.013340985E-02
 -4.798116921E-02 -2.636849443E-03 6.781902028E-02
 -4.862138431E-02 -1.757355020E-02 6.719211549E-02
 -1.125741866E-02 -1.212580078E-02 1.121942276E-02
 -1.647208697E-02 -2.325887018E-02 1.515811157E-02
 -1.771317618E-02 -1.774654430E-02 2.805469477E-02
 -8.728009458E-03 -1.427488787E-02 1.048981716E-01
 -4.684008353E-02 -4.299652291E-03 8.182709024E-02
 -9.654224496E-03 -1.183105406E-02 8.557681786E-02
 -1.843792594E-02 -2.514476070E-03 3.089328665E-02
 -4.159504571E-02 -2.257442818E-02 3.517153457E-02
 -1.781338094E-02 -2.079733469E-02 9.970663789E-02
 -4.721573260E-02 -2.501557586E-02 4.302660913E-02
 -4.053025484E-02 -3.276590169E-03 3.520629675E-02
 -2.104737054E-02 -2.556016427E-03 9.910845407E-03
 -3.887963616E-02 -1.467190907E-02 3.138249851E-02
 -3.269116482E-02 -2.381963535E-02 3.342439202E-02
 -2.313340211E-02 -2.859362655E-02 7.000215371E-02
 -2.500728667E-02 -2.748957427E-02 9.189738772E-02
 -6.993342647E-03 -3.093156503E-02 1.310903483E-01
 -1.269665441E-02 -7.849751459E-03 4.684078887E-02
 -4.139649348E-02 -2.578891928E-02 1.189978712E-01
 -7.956908411E-03 -5.311817363E-03 2.618756388E-02
 -2.419985512E-02 -1.273894768E-02 2.121764483E-02
 -4.283548664E-02 -8.627341444E-03 1.247364968E-01
 -1.216850353E-02 -1.380508147E-02 1.220030900E-01
 -1.101233693E-02 -2.804808138E-02 1.097783693E-01
 -1.244040934E-02 -6.013634400E-03 9.370263042E-02
 -7.407671826E-03 -4.653594294E-03 1.083657854E-02
 -7.791266709E-03 -3.099284102E-02 1.846475368E-02
 -2.876558158E-02 -2.125588756E-02 2.463894845E-02
 -3.268541741E-02 -3.038125113E-02 6.141763893E-02
 -1.415443625E-02 -1.133571013E-02 2.400835067E-02
 -4.710302961E-02 -2.603925440E-02 1.267619600E-01
 -1.909275789E-02 -2.415821427E-02 1.132788787E-01
 -2.474552371E-02 -1.012957402E-02 1.245993195E-01
 -1.645074509E-02 -2.272186092E-02 1.255797921E-01
 -1.882434726E-02 -3.120100429E-02 7.988061156E-02
 -1.655874219E-02 -1.036851500E-02 9.175413179E-03
 -4.173536419E-02 -2.811263515E-02 5.240600784E-02
 -4.782498190E-02 -2.404399599E-02 8.830369156E-02
 -3.702404629E-02 -2.556906607E-02 8.882625193E-02
 -2.697437308E-02 -2.314978995E-02 1.173352182E-01
 3.294990152E-02 -4.248906051E-02 2.894279760E-02
 2.086656110E-02 -4.989965251E-02 2.928788719E-02
 7.287047807E-03 -5.474317820E-02 3.053780110E-02
 1.315412867E-02 -4.308899371E-02 2.030497251E-02
 2.975914724E-02 -5.491120364E-02 1.283707940E-01
 2.628721668E-02 -5.665535605E-02 1.219354143E-01
 3.261579445E-02 -5.326403179E-02 1.222137876E-01
 3.538152517E-02 -5.146838648E-02 1.160567812E-01
 3.851333542E-02 -4.916879218E-02 1.224921609E-01
 4.149663755E-02 -4.667843401E-02 1.289163357E-01
 3.211278758E-02 -5.356879692E-02 1.096214015E-01
 3.804862990E-02 -4.952927309E-02 1.098997749E-01
 4.060967411E-02 -4.745209688E-02 1.037427685E-01
 3.758055052E-02 -4.988536211E-02 9.730738879E-02
 3.137964135E-02 -5.400152997E-02 9.717927425E-02
 3.418601891E-02 -5.227009892E-02 9.102226788E-02
 2.848579307E-02 -5.558243178E-02 1.033362806E-01
 2.473312452E-02 -5.735084726E-02 9.705115971E-02
 2.551254066E-02 -5.700839762E-02 1.094932870E-01
 1.773538411E-02 -5.988575190E-02 9.692304518E-02
 2.087133801E-02 -5.886624143E-02 9.076603880E-02
 2.246817207E-02 -5.827545258E-02 1.156502934E-01
 1.855000204E-02 -5.963844862E-02 1.093651725E-01
 1.132404349E-02 -6.142160181E-02 1.092370579E-01
 1.454999285E-02 -6.073833088E-02 1.030800515E-01
 8.066528363E-03 -6.193366007E-02 1.153940643E-01
 3.937277465E-03 -6.233253545E-02 1.091089434E-01
 1.048579178E-02 -6.157024688E-02 9.679493064E-02
 1.936117346E-02 -5.938006477E-02 1.218072997E-01
 1.620020559E-02 -6.031915507E-02 1.279643061E-01
 1.216019123E-02 -6.126154486E-02 1.216791852E-01
 4.786527799E-03 -6.227307830E-02 1.215510707E-01
 3.087295601E-03 -6.238041148E-02 9.666681610E-02
 6.375329340E-03 -6.213052636E-02 9.050980973E-02
 -2.093439714E-04 -6.245641124E-02 1.028238225E-01
 -4.355041821E-03 -6.230474092E-02 9.653870156E-02
 -3.505399998E-03 -6.235831381E-02 1.089808288E-01
 9.142031549E-04 -6.245007096E-02 1.332575950E-01
 2.939741708E-03 -6.238753921E-02 1.274280351E-01
 -5.085532523E-03 -6.224937340E-02 1.331630383E-01
 -1.208330673E-03 -6.244507240E-02 1.211429142E-01
 -5.323551824E-03 -6.222946992E-02 1.150966719E-01
 -4.129093827E-03 -6.232012287E-02 5.814171682E-02
 -3.744030316E-03 -6.234444135E-02 4.542172503E-02
 3.345410224E-03 -6.236710159E-02 4.534790278E-02
 -3.992616130E-04 -6.245548591E-02 5.173415150E-02
 1.030727484E-02 -6.160038324E-02 4.534790278E-02
 2.960071453E-03 -6.238657794E-02 5.806789457E-02
 -4.471160739E-03 -6.229651557E-02 7.088025829E-02
 1.747950290E-02 -5.996093819E-02 4.554983957E-02
 1.393716162E-02 -6.088187461E-02 5.186226604E-02
 1.745337833E-02 -5.996854771E-02 5.841534056E-02
 1.028043670E-02 -6.160486792E-02 5.821340377E-02
 2.444621437E-02 -5.747373081E-02 5.857856610E-02
 2.097408601E-02 -5.882971057E-02 6.492970382E-02
 6.582344312E-03 -6.210893554E-02 6.462096908E-02
 2.440447787E-02 -5.749146536E-02 7.147365755E-02
 1.740983226E-02 -5.998120431E-02 7.131043201E-02
 1.379742389E-02 -6.091369488E-02 7.769907868E-02
 1.018379349E-02 -6.162091755E-02 7.115512496E-02
 1.734871609E-02 -5.999890982E-02 8.424615500E-02
 1.012101058E-02 -6.163126053E-02 8.409084795E-02
 2.862211093E-03 -6.239114422E-02 7.100961575E-02
 3.106999318E-02 -5.418027920E-02 7.160729262E-02
 2.776629317E-02 -5.594533129E-02 7.798802081E-02
 3.103058406E-02 -5.420285954E-02 8.450790462E-02
 2.436266256E-02 -5.750919755E-02 8.437426954E-02
 3.725792065E-02 -5.012678405E-02 8.463601915E-02
 -8.400868342E-04 -6.245111195E-02 7.741441416E-02
 2.717846614E-03 -6.239759963E-02 8.396273341E-02